# Region type : patch cell1_to_fins
# Faces  :    307
# Area   :    2.536208e-04
# Time        	areaAverage(T)
0             	3.000000e+02
0.00025       	3.000000e+02
0.0005        	3.000000e+02
0.00075       	3.000000e+02
0.001         	3.000000e+02
0.00125       	3.000000e+02
0.0015        	3.000000e+02
0.00175       	3.000000e+02
0.002         	3.000000e+02
0.00225       	3.000000e+02
0.0025        	3.000000e+02
0.00275       	3.000000e+02
0.003         	3.000000e+02
0.00325       	3.000000e+02
0.0035        	3.000000e+02
0.00375       	3.000000e+02
0.004         	3.000000e+02
0.00425       	3.000000e+02
0.0045        	3.000000e+02
0.00475       	3.000000e+02
0.005         	3.000000e+02
0.00525       	3.000000e+02
0.0055        	3.000000e+02
0.00575       	3.000000e+02
0.006         	3.000000e+02
0.00625       	3.000000e+02
0.0065        	3.000000e+02
0.00675       	3.000000e+02
0.007         	3.000000e+02
0.00725       	3.000000e+02
0.0075        	3.000000e+02
0.00775       	3.000000e+02
0.008         	3.000000e+02
0.00825       	3.000000e+02
0.0085        	3.000000e+02
0.00875       	3.000000e+02
0.009         	3.000000e+02
0.00925       	3.000000e+02
0.0095        	3.000000e+02
0.00975       	3.000000e+02
0.01          	3.000000e+02
0.01025       	3.000000e+02
0.0105        	3.000000e+02
0.01075       	3.000000e+02
0.011         	3.000000e+02
0.01125       	3.000000e+02
0.0115        	3.000000e+02
0.01175       	3.000000e+02
0.012         	3.000000e+02
0.01225       	3.000000e+02
0.0125        	3.000000e+02
0.01275       	3.000000e+02
0.013         	3.000000e+02
0.01325       	3.000000e+02
0.0135        	3.000000e+02
0.01375       	3.000000e+02
0.014         	3.000000e+02
0.01425       	3.000000e+02
0.0145        	3.000000e+02
0.01475       	3.000000e+02
0.015         	3.000000e+02
0.01525       	3.000000e+02
0.0155        	3.000000e+02
0.01575       	3.000000e+02
0.016         	3.000000e+02
0.01625       	3.000000e+02
0.0165        	3.000000e+02
0.01675       	3.000000e+02
0.017         	3.000000e+02
0.01725       	3.000000e+02
0.0175        	3.000000e+02
0.01775       	3.000000e+02
0.018         	3.000000e+02
0.01825       	3.000000e+02
0.0185        	3.000000e+02
0.01875       	3.000000e+02
0.019         	3.000000e+02
0.01925       	3.000000e+02
0.0195        	3.000000e+02
0.01975       	3.000000e+02
0.02          	3.000000e+02
0.02025       	3.000000e+02
0.0205        	3.000000e+02
0.02075       	3.000000e+02
0.021         	3.000000e+02
0.02125       	3.000000e+02
0.0215        	3.000000e+02
0.02175       	3.000000e+02
0.022         	3.000000e+02
0.02225       	3.000000e+02
0.0225        	3.000000e+02
0.02275       	3.000000e+02
0.023         	3.000000e+02
0.02325       	3.000000e+02
0.0235        	3.000000e+02
0.02375       	3.000000e+02
0.024         	3.000000e+02
0.02425       	3.000000e+02
0.0245        	3.000000e+02
0.02475       	3.000000e+02
0.025         	3.000000e+02
0.02525       	3.000000e+02
0.0255        	3.000000e+02
0.02575       	3.000000e+02
0.026         	3.000000e+02
0.02625       	3.000000e+02
0.0265        	3.000000e+02
0.02675       	3.000000e+02
0.027         	3.000000e+02
0.02725       	3.000000e+02
0.0275        	3.000000e+02
0.02775       	3.000000e+02
0.028         	3.000000e+02
0.02825       	3.000000e+02
0.0285        	3.000000e+02
0.02875       	3.000000e+02
0.029         	3.000000e+02
0.02925       	3.000000e+02
0.0295        	3.000000e+02
0.02975       	3.000000e+02
0.03          	3.000000e+02
0.03025       	3.000000e+02
0.0305        	3.000000e+02
0.03075       	3.000000e+02
0.031         	3.000000e+02
0.03125       	3.000000e+02
0.0315        	3.000000e+02
0.03175       	3.000000e+02
0.032         	3.000000e+02
0.03225       	3.000000e+02
0.0325        	3.000000e+02
0.03275       	3.000000e+02
0.033         	3.000000e+02
0.03325       	3.000000e+02
0.0335        	3.000000e+02
0.03375       	3.000000e+02
0.034         	3.000000e+02
0.03425       	3.000000e+02
0.0345        	3.000000e+02
0.03475       	3.000000e+02
0.035         	3.000000e+02
0.03525       	3.000000e+02
0.0355        	3.000000e+02
0.03575       	3.000000e+02
0.036         	3.000000e+02
0.03625       	3.000000e+02
0.0365        	3.000000e+02
0.03675       	3.000000e+02
0.037         	3.000000e+02
0.03725       	3.000000e+02
0.0375        	3.000000e+02
0.03775       	3.000000e+02
0.038         	3.000000e+02
0.03825       	3.000000e+02
0.0385        	3.000000e+02
0.03875       	3.000000e+02
0.039         	3.000000e+02
0.03925       	3.000000e+02
0.0395        	3.000000e+02
0.03975       	3.000000e+02
0.04          	3.000000e+02
0.04025       	3.000000e+02
0.0405        	3.000000e+02
0.04075       	3.000000e+02
0.041         	3.000000e+02
0.04125       	3.000000e+02
0.0415        	3.000000e+02
0.04175       	3.000000e+02
0.042         	3.000000e+02
0.04225       	3.000000e+02
0.0425        	3.000000e+02
0.04275       	3.000000e+02
0.043         	3.000000e+02
0.04325       	3.000000e+02
0.0435        	3.000000e+02
0.04375       	3.000000e+02
0.044         	3.000000e+02
0.04425       	3.000000e+02
0.0445        	3.000000e+02
0.04475       	3.000000e+02
0.045         	3.000000e+02
0.04525       	3.000000e+02
0.0455        	3.000000e+02
0.04575       	3.000000e+02
0.046         	3.000000e+02
0.04625       	3.000000e+02
0.0465        	3.000000e+02
0.04675       	3.000000e+02
0.047         	3.000000e+02
0.04725       	3.000000e+02
0.0475        	3.000000e+02
0.04775       	3.000000e+02
0.048         	3.000000e+02
0.04825       	3.000000e+02
0.0485        	3.000000e+02
0.04875       	3.000000e+02
0.049         	3.000000e+02
0.04925       	3.000000e+02
0.0495        	3.000000e+02
0.04975       	3.000000e+02
0.05          	3.000000e+02
0.05025       	3.000000e+02
0.0505        	3.000000e+02
0.05075       	3.000000e+02
0.051         	3.000000e+02
0.05125       	3.000000e+02
0.0515        	3.000000e+02
0.05175       	3.000000e+02
0.052         	3.000000e+02
0.05225       	3.000000e+02
0.0525        	3.000000e+02
0.05275       	3.000000e+02
0.053         	3.000000e+02
0.05325       	3.000000e+02
0.0535        	3.000000e+02
0.05375       	3.000000e+02
0.054         	3.000000e+02
0.05425       	3.000000e+02
0.0545        	3.000000e+02
0.05475       	3.000000e+02
0.055         	3.000000e+02
0.05525       	3.000000e+02
0.0555        	3.000000e+02
0.05575       	3.000000e+02
0.056         	3.000000e+02
0.05625       	3.000000e+02
0.0565        	3.000000e+02
0.05675       	3.000001e+02
0.057         	3.000001e+02
0.05725       	3.000001e+02
0.0575        	3.000001e+02
0.05775       	3.000001e+02
0.058         	3.000001e+02
0.05825       	3.000001e+02
0.0585        	3.000001e+02
0.05875       	3.000001e+02
0.059         	3.000001e+02
0.05925       	3.000001e+02
0.0595        	3.000001e+02
0.05975       	3.000001e+02
0.06          	3.000001e+02
0.06025       	3.000001e+02
0.0605        	3.000001e+02
0.06075       	3.000001e+02
0.061         	3.000001e+02
0.06125       	3.000001e+02
0.0615        	3.000001e+02
0.06175       	3.000001e+02
0.062         	3.000001e+02
0.06225       	3.000001e+02
0.0625        	3.000001e+02
0.06275       	3.000001e+02
0.063         	3.000001e+02
0.06325       	3.000001e+02
0.0635        	3.000001e+02
0.06375       	3.000001e+02
0.064         	3.000001e+02
0.06425       	3.000001e+02
0.0645        	3.000001e+02
0.06475       	3.000001e+02
0.065         	3.000001e+02
0.06525       	3.000001e+02
0.0655        	3.000001e+02
0.06575       	3.000001e+02
0.066         	3.000001e+02
0.06625       	3.000001e+02
0.0665        	3.000001e+02
0.06675       	3.000001e+02
0.067         	3.000001e+02
0.06725       	3.000001e+02
0.0675        	3.000001e+02
0.06775       	3.000001e+02
0.068         	3.000001e+02
0.06825       	3.000001e+02
0.0685        	3.000001e+02
0.06875       	3.000001e+02
0.069         	3.000001e+02
0.06925       	3.000001e+02
0.0695        	3.000001e+02
0.06975       	3.000001e+02
0.07          	3.000001e+02
0.07025       	3.000001e+02
0.0705        	3.000001e+02
0.07075       	3.000001e+02
0.071         	3.000001e+02
0.07125       	3.000001e+02
0.0715        	3.000001e+02
0.07175       	3.000001e+02
0.072         	3.000001e+02
0.07225       	3.000001e+02
0.0725        	3.000001e+02
0.07275       	3.000001e+02
0.073         	3.000001e+02
0.07325       	3.000001e+02
0.0735        	3.000001e+02
0.07375       	3.000001e+02
0.074         	3.000001e+02
0.07425       	3.000001e+02
0.0745        	3.000001e+02
0.07475       	3.000001e+02
0.075         	3.000001e+02
0.07525       	3.000001e+02
0.0755        	3.000001e+02
0.07575       	3.000001e+02
0.076         	3.000001e+02
0.07625       	3.000001e+02
0.0765        	3.000001e+02
0.07675       	3.000001e+02
0.077         	3.000001e+02
0.07725       	3.000001e+02
0.0775        	3.000001e+02
0.07775       	3.000001e+02
0.078         	3.000001e+02
0.07825       	3.000001e+02
0.0785        	3.000001e+02
0.07875       	3.000001e+02
0.079         	3.000001e+02
0.07925       	3.000001e+02
0.0795        	3.000001e+02
0.07975       	3.000001e+02
0.08          	3.000001e+02
0.08025       	3.000001e+02
0.0805        	3.000001e+02
0.08075       	3.000001e+02
0.081         	3.000001e+02
0.08125       	3.000001e+02
0.0815        	3.000001e+02
0.08175       	3.000001e+02
0.082         	3.000001e+02
0.08225       	3.000001e+02
0.0825        	3.000001e+02
0.08275       	3.000001e+02
0.083         	3.000001e+02
0.08325       	3.000001e+02
0.0835        	3.000001e+02
0.08375       	3.000001e+02
0.084         	3.000001e+02
0.08425       	3.000001e+02
0.0845        	3.000001e+02
0.08475       	3.000001e+02
0.085         	3.000001e+02
0.08525       	3.000001e+02
0.0855        	3.000001e+02
0.08575       	3.000001e+02
0.086         	3.000001e+02
0.08625       	3.000001e+02
0.0865        	3.000001e+02
0.08675       	3.000001e+02
0.087         	3.000001e+02
0.08725       	3.000001e+02
0.0875        	3.000001e+02
0.08775       	3.000001e+02
0.088         	3.000001e+02
0.08825       	3.000001e+02
0.0885        	3.000001e+02
0.08875       	3.000001e+02
0.089         	3.000001e+02
0.08925       	3.000001e+02
0.0895        	3.000001e+02
0.08975       	3.000001e+02
0.09          	3.000001e+02
0.09025       	3.000001e+02
0.0905        	3.000001e+02
0.09075       	3.000001e+02
0.091         	3.000001e+02
0.09125       	3.000001e+02
0.0915        	3.000001e+02
0.09175       	3.000001e+02
0.092         	3.000001e+02
0.09225       	3.000001e+02
0.0925        	3.000001e+02
0.09275       	3.000001e+02
0.093         	3.000001e+02
0.09325       	3.000001e+02
0.0935        	3.000001e+02
0.09375       	3.000001e+02
0.094         	3.000001e+02
0.09425       	3.000001e+02
0.0945        	3.000001e+02
0.09475       	3.000001e+02
0.095         	3.000001e+02
0.09525       	3.000001e+02
0.0955        	3.000001e+02
0.09575       	3.000001e+02
0.096         	3.000001e+02
0.09625       	3.000001e+02
0.0965        	3.000001e+02
0.09675       	3.000001e+02
0.097         	3.000001e+02
0.09725       	3.000001e+02
0.0975        	3.000001e+02
0.09775       	3.000001e+02
0.098         	3.000001e+02
0.09825       	3.000001e+02
0.0985        	3.000001e+02
0.09875       	3.000001e+02
0.099         	3.000001e+02
0.09925       	3.000001e+02
0.0995        	3.000001e+02
0.09975       	3.000001e+02
0.1           	3.000001e+02
0.10025       	3.000001e+02
0.1005        	3.000001e+02
0.10075       	3.000001e+02
0.101         	3.000001e+02
0.10125       	3.000001e+02
0.1015        	3.000001e+02
0.10175       	3.000001e+02
0.102         	3.000001e+02
0.10225       	3.000001e+02
0.1025        	3.000001e+02
0.10275       	3.000001e+02
0.103         	3.000001e+02
0.10325       	3.000001e+02
0.1035        	3.000001e+02
0.10375       	3.000001e+02
0.104         	3.000001e+02
0.10425       	3.000001e+02
0.1045        	3.000001e+02
0.10475       	3.000001e+02
0.105         	3.000001e+02
0.10525       	3.000001e+02
0.1055        	3.000001e+02
0.10575       	3.000001e+02
0.106         	3.000001e+02
0.10625       	3.000001e+02
0.1065        	3.000001e+02
0.10675       	3.000001e+02
0.107         	3.000001e+02
0.10725       	3.000001e+02
0.1075        	3.000001e+02
0.10775       	3.000001e+02
0.108         	3.000001e+02
0.10825       	3.000001e+02
0.1085        	3.000001e+02
0.10875       	3.000001e+02
0.109         	3.000001e+02
0.10925       	3.000001e+02
0.1095        	3.000002e+02
0.10975       	3.000002e+02
0.11          	3.000002e+02
0.11025       	3.000002e+02
0.1105        	3.000002e+02
0.11075       	3.000002e+02
0.111         	3.000002e+02
0.11125       	3.000002e+02
0.1115        	3.000002e+02
0.11175       	3.000002e+02
0.112         	3.000002e+02
0.11225       	3.000002e+02
0.1125        	3.000002e+02
0.11275       	3.000002e+02
0.113         	3.000002e+02
0.11325       	3.000002e+02
0.1135        	3.000002e+02
0.11375       	3.000002e+02
0.114         	3.000002e+02
0.11425       	3.000002e+02
0.1145        	3.000002e+02
0.11475       	3.000002e+02
0.115         	3.000002e+02
0.11525       	3.000002e+02
0.1155        	3.000002e+02
0.11575       	3.000002e+02
0.116         	3.000002e+02
0.11625       	3.000002e+02
0.1165        	3.000002e+02
0.11675       	3.000002e+02
0.117         	3.000002e+02
0.11725       	3.000002e+02
0.1175        	3.000002e+02
0.11775       	3.000002e+02
0.118         	3.000002e+02
0.11825       	3.000002e+02
0.1185        	3.000002e+02
0.11875       	3.000002e+02
0.119         	3.000002e+02
0.11925       	3.000002e+02
0.1195        	3.000002e+02
0.11975       	3.000002e+02
0.12          	3.000002e+02
0.12025       	3.000002e+02
0.1205        	3.000002e+02
0.12075       	3.000002e+02
0.121         	3.000002e+02
0.12125       	3.000002e+02
0.1215        	3.000002e+02
0.12175       	3.000002e+02
0.122         	3.000002e+02
0.12225       	3.000002e+02
0.1225        	3.000002e+02
0.12275       	3.000002e+02
0.123         	3.000002e+02
0.12325       	3.000002e+02
0.1235        	3.000002e+02
0.12375       	3.000002e+02
0.124         	3.000002e+02
0.12425       	3.000002e+02
0.1245        	3.000002e+02
0.12475       	3.000002e+02
0.125         	3.000002e+02
0.12525       	3.000002e+02
0.1255        	3.000002e+02
0.12575       	3.000002e+02
0.126         	3.000002e+02
0.12625       	3.000002e+02
0.1265        	3.000002e+02
0.12675       	3.000002e+02
0.127         	3.000002e+02
0.12725       	3.000002e+02
0.1275        	3.000002e+02
0.12775       	3.000002e+02
0.128         	3.000002e+02
0.12825       	3.000002e+02
0.1285        	3.000002e+02
0.12875       	3.000002e+02
0.129         	3.000002e+02
0.12925       	3.000002e+02
0.1295        	3.000002e+02
0.12975       	3.000002e+02
0.13          	3.000002e+02
0.13025       	3.000002e+02
0.1305        	3.000002e+02
0.13075       	3.000002e+02
0.131         	3.000002e+02
0.13125       	3.000002e+02
0.1315        	3.000002e+02
0.13175       	3.000002e+02
0.132         	3.000002e+02
0.13225       	3.000002e+02
0.1325        	3.000002e+02
0.13275       	3.000002e+02
0.133         	3.000002e+02
0.13325       	3.000002e+02
0.1335        	3.000002e+02
0.13375       	3.000002e+02
0.134         	3.000002e+02
0.13425       	3.000002e+02
0.1345        	3.000002e+02
0.13475       	3.000002e+02
0.135         	3.000002e+02
0.13525       	3.000002e+02
0.1355        	3.000002e+02
0.13575       	3.000002e+02
0.136         	3.000002e+02
0.13625       	3.000002e+02
0.1365        	3.000002e+02
0.13675       	3.000002e+02
0.137         	3.000002e+02
0.13725       	3.000002e+02
0.1375        	3.000002e+02
0.13775       	3.000002e+02
0.138         	3.000002e+02
0.13825       	3.000002e+02
0.1385        	3.000002e+02
0.13875       	3.000002e+02
0.139         	3.000002e+02
0.13925       	3.000002e+02
0.1395        	3.000002e+02
0.13975       	3.000002e+02
0.14          	3.000002e+02
0.14025       	3.000002e+02
0.1405        	3.000002e+02
0.14075       	3.000002e+02
0.141         	3.000002e+02
0.14125       	3.000002e+02
0.1415        	3.000002e+02
0.14175       	3.000002e+02
0.142         	3.000002e+02
0.14225       	3.000002e+02
0.1425        	3.000002e+02
0.14275       	3.000002e+02
0.143         	3.000002e+02
0.14325       	3.000002e+02
0.1435        	3.000002e+02
0.14375       	3.000002e+02
0.144         	3.000002e+02
0.14425       	3.000002e+02
0.1445        	3.000002e+02
0.14475       	3.000002e+02
0.145         	3.000002e+02
0.14525       	3.000002e+02
0.1455        	3.000002e+02
0.14575       	3.000002e+02
0.146         	3.000002e+02
0.14625       	3.000002e+02
0.1465        	3.000002e+02
0.14675       	3.000002e+02
0.147         	3.000002e+02
0.14725       	3.000002e+02
0.1475        	3.000002e+02
0.14775       	3.000002e+02
0.148         	3.000002e+02
0.14825       	3.000002e+02
0.1485        	3.000002e+02
0.14875       	3.000002e+02
0.149         	3.000002e+02
0.14925       	3.000002e+02
0.1495        	3.000002e+02
0.14975       	3.000002e+02
0.15          	3.000002e+02
0.15025       	3.000002e+02
0.1505        	3.000002e+02
0.15075       	3.000002e+02
0.151         	3.000002e+02
0.15125       	3.000002e+02
0.1515        	3.000002e+02
0.15175       	3.000002e+02
0.152         	3.000002e+02
0.15225       	3.000002e+02
0.1525        	3.000002e+02
0.15275       	3.000002e+02
0.153         	3.000002e+02
0.15325       	3.000002e+02
0.1535        	3.000002e+02
0.15375       	3.000003e+02
0.154         	3.000003e+02
0.15425       	3.000003e+02
0.1545        	3.000003e+02
0.15475       	3.000003e+02
0.155         	3.000003e+02
0.15525       	3.000003e+02
0.1555        	3.000003e+02
0.15575       	3.000003e+02
0.156         	3.000003e+02
0.15625       	3.000003e+02
0.1565        	3.000003e+02
0.15675       	3.000003e+02
0.157         	3.000003e+02
0.15725       	3.000003e+02
0.1575        	3.000003e+02
0.15775       	3.000003e+02
0.158         	3.000003e+02
0.15825       	3.000003e+02
0.1585        	3.000003e+02
0.15875       	3.000003e+02
0.159         	3.000003e+02
0.15925       	3.000003e+02
0.1595        	3.000003e+02
0.15975       	3.000003e+02
0.16          	3.000003e+02
0.16025       	3.000003e+02
0.1605        	3.000003e+02
0.16075       	3.000003e+02
0.161         	3.000003e+02
0.16125       	3.000003e+02
0.1615        	3.000003e+02
0.16175       	3.000003e+02
0.162         	3.000003e+02
0.16225       	3.000003e+02
0.1625        	3.000003e+02
0.16275       	3.000003e+02
0.163         	3.000003e+02
0.16325       	3.000003e+02
0.1635        	3.000003e+02
0.16375       	3.000003e+02
0.164         	3.000003e+02
0.16425       	3.000003e+02
0.1645        	3.000003e+02
0.16475       	3.000003e+02
0.165         	3.000003e+02
0.16525       	3.000003e+02
0.1655        	3.000003e+02
0.16575       	3.000003e+02
0.166         	3.000003e+02
0.16625       	3.000003e+02
0.1665        	3.000003e+02
0.16675       	3.000003e+02
0.167         	3.000003e+02
0.16725       	3.000003e+02
0.1675        	3.000003e+02
0.16775       	3.000003e+02
0.168         	3.000003e+02
0.16825       	3.000003e+02
0.1685        	3.000003e+02
0.16875       	3.000003e+02
0.169         	3.000003e+02
0.16925       	3.000003e+02
0.1695        	3.000003e+02
0.16975       	3.000003e+02
0.17          	3.000003e+02
0.17025       	3.000003e+02
0.1705        	3.000003e+02
0.17075       	3.000003e+02
0.171         	3.000003e+02
0.17125       	3.000003e+02
0.1715        	3.000003e+02
0.17175       	3.000003e+02
0.172         	3.000003e+02
0.17225       	3.000003e+02
0.1725        	3.000003e+02
0.17275       	3.000003e+02
0.173         	3.000003e+02
0.17325       	3.000003e+02
0.1735        	3.000003e+02
0.17375       	3.000003e+02
0.174         	3.000003e+02
0.17425       	3.000003e+02
0.1745        	3.000003e+02
0.17475       	3.000003e+02
0.175         	3.000003e+02
0.17525       	3.000003e+02
0.1755        	3.000003e+02
0.17575       	3.000003e+02
0.176         	3.000003e+02
0.17625       	3.000003e+02
0.1765        	3.000003e+02
0.17675       	3.000003e+02
0.177         	3.000003e+02
0.17725       	3.000003e+02
0.1775        	3.000003e+02
0.17775       	3.000003e+02
0.178         	3.000003e+02
0.17825       	3.000003e+02
0.1785        	3.000003e+02
0.17875       	3.000003e+02
0.179         	3.000003e+02
0.17925       	3.000003e+02
0.1795        	3.000003e+02
0.17975       	3.000003e+02
0.18          	3.000003e+02
0.18025       	3.000003e+02
0.1805        	3.000003e+02
0.18075       	3.000003e+02
0.181         	3.000003e+02
0.18125       	3.000003e+02
0.1815        	3.000003e+02
0.18175       	3.000003e+02
0.182         	3.000003e+02
0.18225       	3.000003e+02
0.1825        	3.000003e+02
0.18275       	3.000003e+02
0.183         	3.000003e+02
0.18325       	3.000003e+02
0.1835        	3.000003e+02
0.18375       	3.000003e+02
0.184         	3.000003e+02
0.18425       	3.000003e+02
0.1845        	3.000003e+02
0.18475       	3.000003e+02
0.185         	3.000003e+02
0.18525       	3.000003e+02
0.1855        	3.000003e+02
0.18575       	3.000003e+02
0.186         	3.000003e+02
0.18625       	3.000003e+02
0.1865        	3.000003e+02
0.18675       	3.000003e+02
0.187         	3.000003e+02
0.18725       	3.000003e+02
0.1875        	3.000003e+02
0.18775       	3.000003e+02
0.188         	3.000003e+02
0.18825       	3.000003e+02
0.1885        	3.000003e+02
0.18875       	3.000003e+02
0.189         	3.000003e+02
0.18925       	3.000003e+02
0.1895        	3.000003e+02
0.18975       	3.000003e+02
0.19          	3.000003e+02
0.19025       	3.000003e+02
0.1905        	3.000003e+02
0.19075       	3.000003e+02
0.191         	3.000003e+02
0.19125       	3.000003e+02
0.1915        	3.000003e+02
0.19175       	3.000003e+02
0.192         	3.000003e+02
0.19225       	3.000003e+02
0.1925        	3.000003e+02
0.19275       	3.000003e+02
0.193         	3.000003e+02
0.19325       	3.000003e+02
0.1935        	3.000003e+02
0.19375       	3.000003e+02
0.194         	3.000003e+02
0.19425       	3.000003e+02
0.1945        	3.000003e+02
0.19475       	3.000003e+02
0.195         	3.000003e+02
0.19525       	3.000004e+02
0.1955        	3.000004e+02
0.19575       	3.000004e+02
0.196         	3.000004e+02
0.19625       	3.000004e+02
0.1965        	3.000004e+02
0.19675       	3.000004e+02
0.197         	3.000004e+02
0.19725       	3.000004e+02
0.1975        	3.000004e+02
0.19775       	3.000004e+02
0.198         	3.000004e+02
0.19825       	3.000004e+02
0.1985        	3.000004e+02
0.19875       	3.000004e+02
0.199         	3.000004e+02
0.19925       	3.000004e+02
0.1995        	3.000004e+02
0.19975       	3.000004e+02
0.2           	3.000004e+02
0.20025       	3.000004e+02
0.2005        	3.000004e+02
0.20075       	3.000004e+02
0.201         	3.000004e+02
0.20125       	3.000004e+02
0.2015        	3.000004e+02
0.20175       	3.000004e+02
0.202         	3.000004e+02
0.20225       	3.000004e+02
0.2025        	3.000004e+02
0.20275       	3.000004e+02
0.203         	3.000004e+02
0.20325       	3.000004e+02
0.2035        	3.000004e+02
0.20375       	3.000004e+02
0.204         	3.000004e+02
0.20425       	3.000004e+02
0.2045        	3.000004e+02
0.20475       	3.000004e+02
0.205         	3.000004e+02
0.20525       	3.000004e+02
0.2055        	3.000004e+02
0.20575       	3.000004e+02
0.206         	3.000004e+02
0.20625       	3.000004e+02
0.2065        	3.000004e+02
0.20675       	3.000004e+02
0.207         	3.000004e+02
0.20725       	3.000004e+02
0.2075        	3.000004e+02
0.20775       	3.000004e+02
0.208         	3.000004e+02
0.20825       	3.000004e+02
0.2085        	3.000004e+02
0.20875       	3.000004e+02
0.209         	3.000004e+02
0.20925       	3.000004e+02
0.2095        	3.000004e+02
0.20975       	3.000004e+02
0.21          	3.000004e+02
0.21025       	3.000004e+02
0.2105        	3.000004e+02
0.21075       	3.000004e+02
0.211         	3.000004e+02
0.21125       	3.000004e+02
0.2115        	3.000004e+02
0.21175       	3.000004e+02
0.212         	3.000004e+02
0.21225       	3.000004e+02
0.2125        	3.000004e+02
0.21275       	3.000004e+02
0.213         	3.000004e+02
0.21325       	3.000004e+02
0.2135        	3.000004e+02
0.21375       	3.000004e+02
0.214         	3.000004e+02
0.21425       	3.000004e+02
0.2145        	3.000004e+02
0.21475       	3.000004e+02
0.215         	3.000004e+02
0.21525       	3.000004e+02
0.2155        	3.000004e+02
0.21575       	3.000004e+02
0.216         	3.000004e+02
0.21625       	3.000004e+02
0.2165        	3.000004e+02
0.21675       	3.000004e+02
0.217         	3.000004e+02
0.21725       	3.000004e+02
0.2175        	3.000004e+02
0.21775       	3.000004e+02
0.218         	3.000004e+02
0.21825       	3.000004e+02
0.2185        	3.000004e+02
0.21875       	3.000004e+02
0.219         	3.000004e+02
0.21925       	3.000004e+02
0.2195        	3.000004e+02
0.21975       	3.000004e+02
0.22          	3.000004e+02
0.22025       	3.000004e+02
0.2205        	3.000004e+02
0.22075       	3.000004e+02
0.221         	3.000004e+02
0.22125       	3.000004e+02
0.2215        	3.000004e+02
0.22175       	3.000004e+02
0.222         	3.000004e+02
0.22225       	3.000004e+02
0.2225        	3.000004e+02
0.22275       	3.000004e+02
0.223         	3.000004e+02
0.22325       	3.000004e+02
0.2235        	3.000004e+02
0.22375       	3.000004e+02
0.224         	3.000004e+02
0.22425       	3.000004e+02
0.2245        	3.000004e+02
0.22475       	3.000004e+02
0.225         	3.000004e+02
0.22525       	3.000004e+02
0.2255        	3.000004e+02
0.22575       	3.000004e+02
0.226         	3.000004e+02
0.22625       	3.000004e+02
0.2265        	3.000004e+02
0.22675       	3.000004e+02
0.227         	3.000004e+02
0.22725       	3.000004e+02
0.2275        	3.000004e+02
0.22775       	3.000004e+02
0.228         	3.000004e+02
0.22825       	3.000004e+02
0.2285        	3.000004e+02
0.22875       	3.000004e+02
0.229         	3.000004e+02
0.22925       	3.000004e+02
0.2295        	3.000004e+02
0.22975       	3.000004e+02
0.23          	3.000004e+02
0.23025       	3.000004e+02
0.2305        	3.000004e+02
0.23075       	3.000004e+02
0.231         	3.000004e+02
0.23125       	3.000004e+02
0.2315        	3.000004e+02
0.23175       	3.000004e+02
0.232         	3.000004e+02
0.23225       	3.000004e+02
0.2325        	3.000004e+02
0.23275       	3.000004e+02
0.233         	3.000004e+02
0.23325       	3.000004e+02
0.2335        	3.000004e+02
0.23375       	3.000004e+02
0.234         	3.000004e+02
0.23425       	3.000004e+02
0.2345        	3.000004e+02
0.23475       	3.000004e+02
0.235         	3.000005e+02
0.23525       	3.000005e+02
0.2355        	3.000005e+02
0.23575       	3.000005e+02
0.236         	3.000005e+02
0.23625       	3.000005e+02
0.2365        	3.000005e+02
0.23675       	3.000005e+02
0.237         	3.000005e+02
0.23725       	3.000005e+02
0.2375        	3.000005e+02
0.23775       	3.000005e+02
0.238         	3.000005e+02
0.23825       	3.000005e+02
0.2385        	3.000005e+02
0.23875       	3.000005e+02
0.239         	3.000005e+02
0.23925       	3.000005e+02
0.2395        	3.000005e+02
0.23975       	3.000005e+02
0.24          	3.000005e+02
0.24025       	3.000005e+02
0.2405        	3.000005e+02
0.24075       	3.000005e+02
0.241         	3.000005e+02
0.24125       	3.000005e+02
0.2415        	3.000005e+02
0.24175       	3.000005e+02
0.242         	3.000005e+02
0.24225       	3.000005e+02
0.2425        	3.000005e+02
0.24275       	3.000005e+02
0.243         	3.000005e+02
0.24325       	3.000005e+02
0.2435        	3.000005e+02
0.24375       	3.000005e+02
0.244         	3.000005e+02
0.24425       	3.000005e+02
0.2445        	3.000005e+02
0.24475       	3.000005e+02
0.245         	3.000005e+02
0.24525       	3.000005e+02
0.2455        	3.000005e+02
0.24575       	3.000005e+02
0.246         	3.000005e+02
0.24625       	3.000005e+02
0.2465        	3.000005e+02
0.24675       	3.000005e+02
0.247         	3.000005e+02
0.24725       	3.000005e+02
0.2475        	3.000005e+02
0.24775       	3.000005e+02
0.248         	3.000005e+02
0.24825       	3.000005e+02
0.2485        	3.000005e+02
0.24875       	3.000005e+02
0.249         	3.000005e+02
0.24925       	3.000005e+02
0.2495        	3.000005e+02
0.24975       	3.000005e+02
0.25          	3.000005e+02
0.25025       	3.000005e+02
0.2505        	3.000005e+02
0.25075       	3.000005e+02
0.251         	3.000005e+02
0.25125       	3.000005e+02
0.2515        	3.000005e+02
0.25175       	3.000005e+02
0.252         	3.000005e+02
0.25225       	3.000005e+02
0.2525        	3.000005e+02
0.25275       	3.000005e+02
0.253         	3.000005e+02
0.25325       	3.000005e+02
0.2535        	3.000005e+02
0.25375       	3.000005e+02
0.254         	3.000005e+02
0.25425       	3.000005e+02
0.2545        	3.000005e+02
0.25475       	3.000005e+02
0.255         	3.000005e+02
0.25525       	3.000005e+02
0.2555        	3.000005e+02
0.25575       	3.000005e+02
0.256         	3.000005e+02
0.25625       	3.000005e+02
0.2565        	3.000005e+02
0.25675       	3.000005e+02
0.257         	3.000005e+02
0.25725       	3.000005e+02
0.2575        	3.000005e+02
0.25775       	3.000005e+02
0.258         	3.000005e+02
0.25825       	3.000005e+02
0.2585        	3.000005e+02
0.25875       	3.000005e+02
0.259         	3.000005e+02
0.25925       	3.000005e+02
0.2595        	3.000005e+02
0.25975       	3.000005e+02
0.26          	3.000005e+02
0.26025       	3.000005e+02
0.2605        	3.000005e+02
0.26075       	3.000005e+02
0.261         	3.000005e+02
0.26125       	3.000005e+02
0.2615        	3.000005e+02
0.26175       	3.000005e+02
0.262         	3.000005e+02
0.26225       	3.000005e+02
0.2625        	3.000005e+02
0.26275       	3.000005e+02
0.263         	3.000005e+02
0.26325       	3.000005e+02
0.2635        	3.000005e+02
0.26375       	3.000005e+02
0.264         	3.000005e+02
0.26425       	3.000005e+02
0.2645        	3.000005e+02
0.26475       	3.000005e+02
0.265         	3.000005e+02
0.26525       	3.000005e+02
0.2655        	3.000005e+02
0.26575       	3.000005e+02
0.266         	3.000005e+02
0.26625       	3.000005e+02
0.2665        	3.000005e+02